MODEL 1
REMARK VINA RESULT:    -5.154      0.000      0.000
REMARK INTER + INTRA:          -5.989
REMARK INTER:                  -5.757
REMARK INTRA:                  -0.233
REMARK UNBOUND:                -0.233
REMARK SMILES Cc1[nH]cnc1CN1CCc2c(c3ccccc3n2C)C1=O
REMARK SMILES IDX 7 1 6 2 2 3 3 4 4 5 5 6 1 7 8 9 9 10 21 11 10 12 12 13 22 14
REMARK SMILES IDX 11 15 13 16 19 17 14 18 18 19 15 20 17 21 16 22 20 23
REMARK H PARENT 3 8
ROOT
ATOM      1  C   UNL     1     103.408  57.615  99.993  1.00  0.00    +0.177 C 
ENDROOT
BRANCH   1   2
ATOM      2  C   UNL     1     102.851  57.814 101.369  1.00  0.00    +0.080 A 
ATOM      3  C   UNL     1     102.420  58.975 101.987  1.00  0.00    +0.036 A 
ATOM      4  N   UNL     1     101.991  58.579 103.228  1.00  0.00    -0.348 N 
ATOM      5  C   UNL     1     102.176  57.231 103.322  1.00  0.00    +0.197 A 
ATOM      6  N   UNL     1     102.691  56.737 102.221  1.00  0.00    -0.240 NA
ATOM      7  C   UNL     1     102.357  60.381 101.527  1.00  0.00    +0.066 C 
ATOM      8  H   UNL     1     101.602  59.175 103.946  1.00  0.00    +0.167 HD
ENDBRANCH   1   2
BRANCH   1   9
ATOM      9  N   UNL     1     104.847  57.391 100.050  1.00  0.00    -0.332 N 
ATOM     10  C   UNL     1     105.604  58.111 101.090  1.00  0.00    +0.126 C 
ATOM     11  C   UNL     1     105.355  56.218  99.470  1.00  0.00    +0.256 C 
ATOM     12  C   UNL     1     107.102  58.259 100.773  1.00  0.00    +0.076 C 
ATOM     13  C   UNL     1     106.787  56.004  99.675  1.00  0.00    +0.068 A 
ATOM     14  O   UNL     1     104.670  55.438  98.814  1.00  0.00    -0.269 OA
ATOM     15  C   UNL     1     107.599  56.951 100.273  1.00  0.00    +0.033 A 
ATOM     16  C   UNL     1     107.617  54.897  99.336  1.00  0.00    +0.013 A 
ATOM     17  N   UNL     1     108.883  56.481 100.295  1.00  0.00    -0.347 N 
ATOM     18  C   UNL     1     107.382  53.649  98.721  1.00  0.00    +0.011 A 
ATOM     19  C   UNL     1     108.921  55.211  99.745  1.00  0.00    +0.049 A 
ATOM     20  C   UNL     1     108.440  52.753  98.538  1.00  0.00    +0.001 A 
ATOM     21  C   UNL     1     109.988  54.314  99.567  1.00  0.00    +0.027 A 
ATOM     22  C   UNL     1     109.724  53.084  98.958  1.00  0.00    +0.002 A 
ATOM     23  C   UNL     1     110.037  57.189 100.805  1.00  0.00    +0.150 C 
ENDBRANCH   1   9
TORSDOF 2
ENDMDL
