MODEL 1
REMARK VINA RESULT:    -5.739      0.000      0.000
REMARK INTER + INTRA:          -6.460
REMARK INTER:                  -6.075
REMARK INTRA:                  -0.386
REMARK UNBOUND:                -0.386
REMARK SMILES Cc1nnc2n1-c1ccc(Cl)cc1C(c1ccccc1)=NC2
REMARK SMILES IDX 1 1 2 2 3 3 4 4 5 5 6 6 7 7 8 8 9 9 10 10 11 11 12 12 13 13
REMARK SMILES IDX 14 14 21 15 22 16 15 17 16 18 20 19 17 20 19 21 18 22
REMARK H PARENT
ROOT
ATOM      1  C   UNL     1     101.606  54.192  99.768  1.00  0.00    +0.090 C 
ATOM      2  C   UNL     1     102.282  55.168  98.880  1.00  0.00    +0.134 A 
ATOM      3  N   UNL     1     101.967  55.358  97.615  1.00  0.00    -0.135 NA
ATOM      4  N   UNL     1     102.880  56.214  97.068  1.00  0.00    -0.133 NA
ATOM      5  C   UNL     1     103.742  56.541  98.007  1.00  0.00    +0.159 A 
ATOM      6  N   UNL     1     103.390  55.939  99.197  1.00  0.00    -0.281 N 
ATOM      7  C   UNL     1     104.012  56.174 100.449  1.00  0.00    +0.058 A 
ATOM      8  C   UNL     1     103.223  56.202 101.613  1.00  0.00    +0.029 A 
ATOM      9  C   UNL     1     103.793  56.526 102.847  1.00  0.00    +0.023 A 
ATOM     10  C   UNL     1     105.145  56.836 102.928  1.00  0.00    +0.041 A 
ATOM     11 Cl   UNL     1     105.838  57.252 104.446  1.00  0.00    -0.084 Cl
ATOM     12  C   UNL     1     105.942  56.810 101.786  1.00  0.00    +0.033 A 
ATOM     13  C   UNL     1     105.389  56.460 100.541  1.00  0.00    +0.026 A 
ATOM     14  C   UNL     1     106.338  56.338  99.387  1.00  0.00    +0.075 C 
ATOM     15  N   UNL     1     106.128  56.810  98.205  1.00  0.00    -0.276 NA
ATOM     16  C   UNL     1     104.876  57.485  97.894  1.00  0.00    +0.220 C 
ENDROOT
BRANCH  14  17
ATOM     17  C   UNL     1     107.634  55.613  99.601  1.00  0.00    +0.000 A 
ATOM     18  C   UNL     1     108.798  56.298  99.974  1.00  0.00    +0.010 A 
ATOM     19  C   UNL     1     107.665  54.221  99.453  1.00  0.00    +0.010 A 
ATOM     20  C   UNL     1     109.989  55.595 100.168  1.00  0.00    +0.001 A 
ATOM     21  C   UNL     1     108.858  53.523  99.647  1.00  0.00    +0.001 A 
ATOM     22  C   UNL     1     110.019  54.210 100.001  1.00  0.00    +0.000 A 
ENDBRANCH  14  17
TORSDOF 1
ENDMDL
