MODEL 1
REMARK VINA RESULT:    -5.778      0.000      0.000
REMARK INTER + INTRA:          -7.080
REMARK INTER:                  -6.622
REMARK INTRA:                  -0.458
REMARK UNBOUND:                -0.458
REMARK SMILES CCn1nc(C(=O)O)c(=O)c2cc3c(cc21)OCO3
REMARK SMILES IDX 3 1 4 2 5 3 9 4 10 5 11 6 12 7 13 8 14 9 15 10 16 11 17 12
REMARK SMILES IDX 18 13 19 14 2 15 1 16 6 17 7 18 8 19
REMARK H PARENT 8 20
ROOT
ATOM      1  N   UNL     1     102.373  58.406 100.862  1.00  0.00    -0.264 N 
ATOM      2  N   UNL     1     101.823  57.366 100.160  1.00  0.00    -0.161 NA
ATOM      3  C   UNL     1     102.565  56.642  99.372  1.00  0.00    +0.216 C 
ATOM      4  C   UNL     1     104.021  56.907  99.189  1.00  0.00    +0.222 C 
ATOM      5  O   UNL     1     104.694  56.160  98.495  1.00  0.00    -0.286 OA
ATOM      6  C   UNL     1     104.576  58.081  99.862  1.00  0.00    +0.054 A 
ATOM      7  C   UNL     1     105.922  58.422  99.660  1.00  0.00    +0.065 A 
ATOM      8  C   UNL     1     106.389  59.534 100.314  1.00  0.00    +0.166 A 
ATOM      9  C   UNL     1     105.573  60.276 101.130  1.00  0.00    +0.167 A 
ATOM     10  C   UNL     1     104.245  59.948 101.339  1.00  0.00    +0.079 A 
ATOM     11  C   UNL     1     103.706  58.819 100.695  1.00  0.00    +0.075 A 
ATOM     12  O   UNL     1     106.222  61.336 101.684  1.00  0.00    -0.454 OA
ATOM     13  C   UNL     1     107.541  61.173 101.122  1.00  0.00    +0.468 C 
ATOM     14  O   UNL     1     107.652  60.029 100.250  1.00  0.00    -0.454 OA
ENDROOT
BRANCH   1  15
ATOM     15  C   UNL     1     101.412  59.166 101.674  1.00  0.00    +0.141 C 
ATOM     16  C   UNL     1     100.421  59.910 100.791  1.00  0.00    +0.029 C 
ENDBRANCH   1  15
BRANCH   3  17
ATOM     17  C   UNL     1     101.888  55.515  98.629  1.00  0.00    +0.360 C 
ATOM     18  O   UNL     1     101.131  54.714  99.141  1.00  0.00    -0.244 OA
BRANCH  17  19
ATOM     19  O   UNL     1     102.235  55.484  97.337  1.00  0.00    -0.476 OA
ATOM     20  H   UNL     1     101.939  56.350  96.986  1.00  0.00    +0.297 HD
ENDBRANCH  17  19
ENDBRANCH   3  17
TORSDOF 3
ENDMDL
