MODEL 1
REMARK VINA RESULT:    -6.181      0.000      0.000
REMARK INTER + INTRA:          -7.566
REMARK INTER:                  -7.265
REMARK INTRA:                  -0.301
REMARK UNBOUND:                -0.301
REMARK SMILES O=c1oc2ccccc2c(O)c1Cc1c(O)c2ccccc2oc1=O
REMARK SMILES IDX 13 1 12 2 1 3 2 4 3 5 4 6 10 7 5 8 9 9 6 10 8 11 7 12 11 13
REMARK SMILES IDX 14 15 15 16 24 17 17 18 23 19 25 20 18 21 22 22 19 23 21 24
REMARK SMILES IDX 20 25 16 26
REMARK H PARENT 11 14 16 27
ROOT
ATOM      1  C   UNL     1     109.260  53.226  99.513  1.00  0.00    +0.094 C 
ENDROOT
BRANCH   1   2
ATOM      2  C   UNL     1     108.810  52.035 100.324  1.00  0.00    +0.085 C 
ATOM      3  O   UNL     1     109.695  50.657  98.628  1.00  0.00    -0.246 OA
ATOM      4  C   UNL     1     109.069  50.722  99.686  1.00  0.00    +0.343 C 
ATOM      5  O   UNL     1     108.601  49.581 100.313  1.00  0.00    -0.422 OA
ATOM      6  C   UNL     1     107.904  49.657 101.530  1.00  0.00    +0.142 A 
ATOM      7  C   UNL     1     108.156  52.100 101.497  1.00  0.00    +0.137 C 
ATOM      8  C   UNL     1     107.470  48.454 102.084  1.00  0.00    +0.048 A 
ATOM      9  C   UNL     1     107.666  50.882 102.145  1.00  0.00    +0.060 A 
ATOM     10  C   UNL     1     106.776  48.472 103.292  1.00  0.00    +0.004 A 
ATOM     11  C   UNL     1     106.967  50.886 103.357  1.00  0.00    +0.016 A 
ATOM     12  C   UNL     1     106.524  49.689 103.928  1.00  0.00    +0.001 A 
BRANCH   7  13
ATOM     13  O   UNL     1     107.882  53.271 102.172  1.00  0.00    -0.507 OA
ATOM     14  H   UNL     1     108.612  53.918 102.049  1.00  0.00    +0.293 HD
ENDBRANCH   7  13
ENDBRANCH   1   2
BRANCH   1  15
ATOM     15  C   UNL     1     108.183  54.267  99.334  1.00  0.00    +0.085 C 
ATOM     16  C   UNL     1     108.116  55.434  99.999  1.00  0.00    +0.137 C 
ATOM     17  C   UNL     1     107.194  53.955  98.273  1.00  0.00    +0.343 C 
ATOM     18  C   UNL     1     107.089  56.422  99.666  1.00  0.00    +0.060 A 
ATOM     19  O   UNL     1     106.230  54.900  97.975  1.00  0.00    -0.422 OA
ATOM     20  O   UNL     1     107.234  52.874  97.686  1.00  0.00    -0.246 OA
ATOM     21  C   UNL     1     106.977  57.659 100.312  1.00  0.00    +0.016 A 
ATOM     22  C   UNL     1     106.176  56.123  98.661  1.00  0.00    +0.142 A 
ATOM     23  C   UNL     1     105.973  58.563  99.951  1.00  0.00    +0.001 A 
ATOM     24  C   UNL     1     105.168  57.013  98.288  1.00  0.00    +0.048 A 
ATOM     25  C   UNL     1     105.069  58.240  98.939  1.00  0.00    +0.004 A 
BRANCH  16  26
ATOM     26  O   UNL     1     108.979  55.805 101.008  1.00  0.00    -0.507 OA
ATOM     27  H   UNL     1     108.984  55.131 101.723  1.00  0.00    +0.293 HD
ENDBRANCH  16  26
ENDBRANCH   1  15
TORSDOF 4
ENDMDL
