MODEL 1
REMARK VINA RESULT:    -6.096      0.000      0.000
REMARK INTER + INTRA:          -6.797
REMARK INTER:                  -6.631
REMARK INTRA:                  -0.166
REMARK UNBOUND:                -0.166
REMARK SMILES C[C@]12CCC3=C4CCC(=O)C=C4CC[C@H]3[C@@H]1CC[C@@]2(O)CC#N
REMARK SMILES IDX 1 1 2 2 3 3 4 4 5 5 6 6 7 7 8 8 9 9 10 10 11 11 12 12 13 13
REMARK SMILES IDX 14 14 15 15 16 16 17 17 18 18 19 19 20 20 21 22 22 23 23 24
REMARK H PARENT 20 21
ROOT
ATOM      1  C   UNL     1     106.938  57.834 100.356  1.00  0.00    +0.015 C 
ATOM      2  C   UNL     1     105.881  56.689 100.284  1.00  0.00    +0.001 C 
ATOM      3  C   UNL     1     105.844  55.967 101.642  1.00  0.00    +0.014 C 
ATOM      4  C   UNL     1     107.168  55.236 101.939  1.00  0.00    +0.032 C 
ATOM      5  C   UNL     1     107.636  54.320 100.811  1.00  0.00    -0.063 C 
ATOM      6  C   UNL     1     108.085  53.054 100.998  1.00  0.00    -0.045 C 
ATOM      7  C   UNL     1     108.166  52.332 102.330  1.00  0.00    +0.044 C 
ATOM      8  C   UNL     1     107.637  50.907 102.234  1.00  0.00    +0.085 C 
ATOM      9  C   UNL     1     108.334  50.164 101.125  1.00  0.00    +0.156 C 
ATOM     10  O   UNL     1     108.504  48.948 101.153  1.00  0.00    -0.295 OA
ATOM     11  C   UNL     1     108.762  50.932  99.934  1.00  0.00    +0.051 C 
ATOM     12  C   UNL     1     108.615  52.267  99.878  1.00  0.00    -0.041 C 
ATOM     13  C   UNL     1     108.999  53.029  98.638  1.00  0.00    +0.036 C 
ATOM     14  C   UNL     1     107.871  53.978  98.266  1.00  0.00    +0.013 C 
ATOM     15  C   UNL     1     107.594  54.967  99.411  1.00  0.00    +0.019 C 
ATOM     16  C   UNL     1     106.223  55.633  99.211  1.00  0.00    +0.005 C 
ATOM     17  C   UNL     1     105.951  56.361  97.900  1.00  0.00    +0.008 C 
ATOM     18  C   UNL     1     104.729  57.252  98.196  1.00  0.00    +0.037 C 
ATOM     19  C   UNL     1     104.526  57.262  99.739  1.00  0.00    +0.083 C 
ENDROOT
BRANCH  19  20
ATOM     20  O   UNL     1     104.373  58.636 100.139  1.00  0.00    -0.388 OA
ATOM     21  H   UNL     1     103.856  58.665 100.963  1.00  0.00    +0.211 HD
ENDBRANCH  19  20
BRANCH  19  22
ATOM     22  C   UNL     1     103.207  56.575 100.168  1.00  0.00    +0.155 C 
ATOM     23  C   UNL     1     102.467  55.876  99.115  1.00  0.00    +0.065 C 
ATOM     24  N   UNL     1     101.868  55.317  98.293  1.00  0.00    -0.198 NA
ENDBRANCH  19  22
TORSDOF 2
ENDMDL
