MODEL 1
REMARK VINA RESULT:    -5.679      0.000      0.000
REMARK INTER + INTRA:          -7.211
REMARK INTER:                  -6.841
REMARK INTRA:                  -0.370
REMARK UNBOUND:                -0.370
REMARK SMILES CC1=C[C@@H]2CN(C(=O)N2OS(=O)(=O)O)[C@@H]1C(N)=O
REMARK SMILES IDX 10 1 9 2 2 3 3 4 15 5 4 6 6 7 5 8 7 9 8 10 1 11 16 12 17 13
REMARK SMILES IDX 18 14 11 17 12 18 13 19 14 20
REMARK H PARENT 17 15 17 16 14 21
ROOT
ATOM      1  O   UNL     1     103.564  55.361  98.899  1.00  0.00    -0.121 OA
ENDROOT
BRANCH   1   2
ATOM      2  N   UNL     1     103.825  56.679  99.383  1.00  0.00    -0.175 N 
ATOM      3  C   UNL     1     104.486  59.175 100.930  1.00  0.00    -0.043 C 
ATOM      4  C   UNL     1     103.722  58.102 101.265  1.00  0.00    +0.004 C 
ATOM      5  C   UNL     1     105.757  59.021 100.063  1.00  0.00    +0.202 C 
ATOM      6  C   UNL     1     104.126  56.711 100.806  1.00  0.00    +0.161 C 
ATOM      7  N   UNL     1     105.919  57.590  99.689  1.00  0.00    -0.305 N 
ATOM      8  C   UNL     1     105.647  56.677 100.798  1.00  0.00    +0.155 C 
ATOM      9  C   UNL     1     104.967  57.194  98.701  1.00  0.00    +0.346 C 
ATOM     10  O   UNL     1     105.129  57.188  97.489  1.00  0.00    -0.246 OA
ATOM     11  C   UNL     1     104.071  60.573 101.294  1.00  0.00    +0.042 C 
BRANCH   5  12
ATOM     12  C   UNL     1     107.055  59.547 100.750  1.00  0.00    +0.244 C 
ATOM     13  N   UNL     1     107.871  60.314  99.962  1.00  0.00    -0.368 N 
ATOM     14  O   UNL     1     107.329  59.386 101.936  1.00  0.00    -0.273 OA
ATOM     15  H   UNL     1     108.649  60.785 100.404  1.00  0.00    +0.159 HD
ATOM     16  H   UNL     1     107.539  60.640  99.062  1.00  0.00    +0.159 HD
ENDBRANCH   5  12
ENDBRANCH   1   2
BRANCH   1  17
ATOM     17  S   UNL     1     101.978  54.924  98.969  1.00  0.00    +0.418 S 
ATOM     18  O   UNL     1     101.200  56.132  99.137  1.00  0.00    -0.167 OA
ATOM     19  O   UNL     1     101.694  53.993  97.898  1.00  0.00    -0.167 OA
BRANCH  17  20
ATOM     20  O   UNL     1     101.894  54.096 100.352  1.00  0.00    -0.262 OA
ATOM     21  H   UNL     1     101.940  53.129 100.148  1.00  0.00    +0.236 HD
ENDBRANCH  17  20
ENDBRANCH   1  17
TORSDOF 4
ENDMDL
