MODEL 1
REMARK VINA RESULT:    -5.828      0.000      0.000
REMARK INTER + INTRA:          -6.504
REMARK INTER:                  -6.168
REMARK INTRA:                  -0.336
REMARK UNBOUND:                -0.336
REMARK SMILES Clc1ccc2c(c1)C(c1ccccc1)=NCc1nncn1-2
REMARK SMILES IDX 1 1 2 2 3 3 4 4 5 5 6 6 7 7 8 8 15 9 16 10 17 11 18 12 19 13
REMARK SMILES IDX 20 14 21 15 9 16 10 17 14 18 11 19 13 20 12 21
REMARK H PARENT
ROOT
ATOM      1 Cl   UNL     1     106.176  57.359 104.556  1.00  0.00    -0.084 Cl
ATOM      2  C   UNL     1     105.404  56.929 103.082  1.00  0.00    +0.041 A 
ATOM      3  C   UNL     1     104.056  56.591 103.080  1.00  0.00    +0.023 A 
ATOM      4  C   UNL     1     103.423  56.256 101.880  1.00  0.00    +0.029 A 
ATOM      5  C   UNL     1     104.144  56.259 100.672  1.00  0.00    +0.058 A 
ATOM      6  C   UNL     1     105.525  56.540 100.685  1.00  0.00    +0.026 A 
ATOM      7  C   UNL     1     106.138  56.906 101.898  1.00  0.00    +0.033 A 
ATOM      8  C   UNL     1     106.421  56.361  99.494  1.00  0.00    +0.075 C 
ATOM      9  N   UNL     1     106.160  56.753  98.295  1.00  0.00    -0.276 NA
ATOM     10  C   UNL     1     104.905  57.412  97.979  1.00  0.00    +0.220 C 
ATOM     11  C   UNL     1     103.761  56.505  98.216  1.00  0.00    +0.159 A 
ATOM     12  N   UNL     1     102.842  56.127  97.350  1.00  0.00    -0.133 NA
ATOM     13  N   UNL     1     101.892  55.407  98.027  1.00  0.00    -0.139 NA
ATOM     14  C   UNL     1     102.255  55.367  99.287  1.00  0.00    +0.231 A 
ATOM     15  N   UNL     1     103.445  56.025  99.465  1.00  0.00    -0.283 N 
ENDROOT
BRANCH   8  16
ATOM     16  C   UNL     1     107.730  55.656  99.692  1.00  0.00    +0.000 A 
ATOM     17  C   UNL     1     107.775  54.261  99.576  1.00  0.00    +0.010 A 
ATOM     18  C   UNL     1     108.893  56.365 100.022  1.00  0.00    +0.010 A 
ATOM     19  C   UNL     1     108.981  53.583  99.758  1.00  0.00    +0.001 A 
ATOM     20  C   UNL     1     110.098  55.681 100.201  1.00  0.00    +0.001 A 
ATOM     21  C   UNL     1     110.142  54.293 100.065  1.00  0.00    +0.000 A 
ENDBRANCH   8  16
TORSDOF 1
ENDMDL
