MODEL 1
REMARK VINA RESULT:    -5.699      0.000      0.000
REMARK INTER + INTRA:          -6.989
REMARK INTER:                  -6.699
REMARK INTRA:                  -0.290
REMARK UNBOUND:                -0.290
REMARK SMILES C=CCN1CC[C@]23c4c5ccc(O)c4O[C@H]2C(=O)CC[C@@]3(O)[C@H]1C5
REMARK SMILES IDX 4 1 5 2 6 3 7 4 8 5 9 6 10 7 11 8 12 9 14 10 15 11 16 12
REMARK SMILES IDX 17 13 18 14 19 15 20 16 21 17 23 18 24 19 3 20 2 21 1 22
REMARK SMILES IDX 22 23 13 25
REMARK H PARENT 22 24 13 26
ROOT
ATOM      1  N   UNL     1     107.427  56.495 100.536  1.00  0.00    -0.293 NA
ATOM      2  C   UNL     1     106.705  56.411 101.817  1.00  0.00    +0.086 C 
ATOM      3  C   UNL     1     105.290  55.847 101.641  1.00  0.00    +0.035 C 
ATOM      4  C   UNL     1     104.523  56.488 100.462  1.00  0.00    +0.075 C 
ATOM      5  C   UNL     1     104.179  57.900 100.767  1.00  0.00    +0.015 A 
ATOM      6  C   UNL     1     105.014  58.992 100.600  1.00  0.00    -0.038 A 
ATOM      7  C   UNL     1     104.499  60.241 100.952  1.00  0.00    +0.008 A 
ATOM      8  C   UNL     1     103.168  60.358 101.410  1.00  0.00    +0.050 A 
ATOM      9  C   UNL     1     102.336  59.234 101.480  1.00  0.00    +0.158 A 
ATOM     10  C   UNL     1     102.856  58.008 101.131  1.00  0.00    +0.166 A 
ATOM     11  O   UNL     1     102.184  56.819 101.025  1.00  0.00    -0.477 OA
ATOM     12  C   UNL     1     103.106  55.913 100.354  1.00  0.00    +0.253 C 
ATOM     13  C   UNL     1     102.690  55.667  98.907  1.00  0.00    +0.174 C 
ATOM     14  O   UNL     1     101.925  54.748  98.603  1.00  0.00    -0.295 OA
ATOM     15  C   UNL     1     103.151  56.662  97.866  1.00  0.00    +0.083 C 
ATOM     16  C   UNL     1     104.636  57.016  97.941  1.00  0.00    +0.046 C 
ATOM     17  C   UNL     1     105.373  56.485  99.186  1.00  0.00    +0.095 C 
ATOM     18  C   UNL     1     106.674  57.306  99.524  1.00  0.00    +0.094 C 
ATOM     19  C   UNL     1     106.358  58.790  99.941  1.00  0.00    +0.058 C 
ENDROOT
BRANCH   1  20
ATOM     20  C   UNL     1     108.806  56.954 100.759  1.00  0.00    +0.111 C 
BRANCH  20  21
ATOM     21  C   UNL     1     109.790  56.206  99.908  1.00  0.00    -0.019 C 
ATOM     22  C   UNL     1     109.674  54.916  99.563  1.00  0.00    +0.005 C 
ENDBRANCH  20  21
ENDBRANCH   1  20
BRANCH  17  23
ATOM     23  O   UNL     1     105.739  55.127  98.880  1.00  0.00    -0.387 OA
ATOM     24  H   UNL     1     105.247  54.910  98.059  1.00  0.00    +0.211 HD
ENDBRANCH  17  23
BRANCH   9  25
ATOM     25  O   UNL     1     101.033  59.337 101.855  1.00  0.00    -0.504 OA
ATOM     26  H   UNL     1     100.676  60.181 101.537  1.00  0.00    +0.293 HD
ENDBRANCH   9  25
TORSDOF 4
ENDMDL
