MODEL 1
REMARK VINA RESULT:    -5.690      0.000      0.000
REMARK INTER + INTRA:          -7.928
REMARK INTER:                  -7.353
REMARK INTRA:                  -0.574
REMARK UNBOUND:                -0.574
REMARK SMILES CC(=O)c1c(C)c2cnc(Nc3ccc(N4CCNCC4)cn3)nc2n(C2CCCC2)c1=O
REMARK SMILES IDX 11 1 10 3 4 4 5 5 32 6 7 7 26 8 33 9 8 10 25 11 9 12 24 13
REMARK SMILES IDX 6 14 2 15 3 16 1 17 27 18 28 19 31 20 29 21 30 22 12 23
REMARK SMILES IDX 13 24 23 25 14 26 22 27 15 28 16 29 17 30 21 31 18 32 20 33
REMARK SMILES IDX 19 34
REMARK H PARENT 11 2 19 35
ROOT
ATOM      1  N   UNL     1     104.426  61.333 101.741  1.00  0.00    -0.309 N 
ATOM      2  H   UNL     1     104.866  62.234 101.843  1.00  0.00    +0.171 HD
ENDROOT
BRANCH   1   3
ATOM      3  C   UNL     1     105.338  60.302 101.637  1.00  0.00    +0.230 A 
ATOM      4  C   UNL     1     107.528  56.008 100.362  1.00  0.00    +0.086 C 
ATOM      5  C   UNL     1     107.930  57.002 101.181  1.00  0.00    -0.022 C 
ATOM      6  C   UNL     1     106.197  56.039  99.685  1.00  0.00    +0.263 C 
ATOM      7  C   UNL     1     107.034  58.161 101.342  1.00  0.00    +0.040 A 
ATOM      8  N   UNL     1     105.349  57.101  99.965  1.00  0.00    -0.289 N 
ATOM      9  O   UNL     1     105.904  55.121  98.921  1.00  0.00    -0.268 OA
ATOM     10  C   UNL     1     107.351  59.295 102.065  1.00  0.00    +0.127 A 
ATOM     11  C   UNL     1     105.780  58.201 100.760  1.00  0.00    +0.148 A 
ATOM     12  N   UNL     1     106.535  60.355 102.226  1.00  0.00    -0.221 NA
ATOM     13  N   UNL     1     104.943  59.251 100.907  1.00  0.00    -0.194 NA
ATOM     14  C   UNL     1     109.225  57.005 101.957  1.00  0.00    +0.046 C 
BRANCH   4  15
ATOM     15  C   UNL     1     108.424  54.836 100.106  1.00  0.00    +0.165 C 
ATOM     16  O   UNL     1     109.310  54.899  99.253  1.00  0.00    -0.294 OA
ATOM     17  C   UNL     1     108.218  53.591 100.928  1.00  0.00    +0.094 C 
ENDBRANCH   4  15
BRANCH   8  18
ATOM     18  C   UNL     1     104.023  57.178  99.328  1.00  0.00    +0.092 C 
ATOM     19  C   UNL     1     104.033  56.751  97.851  1.00  0.00    +0.025 C 
ATOM     20  C   UNL     1     102.928  56.324 100.006  1.00  0.00    +0.025 C 
ATOM     21  C   UNL     1     102.646  56.174  97.622  1.00  0.00    +0.002 C 
ATOM     22  C   UNL     1     102.365  55.422  98.912  1.00  0.00    +0.002 C 
ENDBRANCH   8  18
ENDBRANCH   1   3
BRANCH   1  23
ATOM     23  C   UNL     1     103.047  61.421 101.738  1.00  0.00    +0.132 A 
ATOM     24  C   UNL     1     102.209  60.665 102.540  1.00  0.00    +0.049 A 
ATOM     25  N   UNL     1     102.538  62.321 100.875  1.00  0.00    -0.237 NA
ATOM     26  C   UNL     1     100.820  60.836 102.459  1.00  0.00    +0.031 A 
ATOM     27  C   UNL     1     101.186  62.462 100.820  1.00  0.00    +0.139 A 
ATOM     28  C   UNL     1     100.250  61.761 101.584  1.00  0.00    +0.055 A 
BRANCH  28  29
ATOM     29  N   UNL     1      98.885  61.951 101.477  1.00  0.00    -0.368 N 
ATOM     30  C   UNL     1      98.279  62.648 100.330  1.00  0.00    +0.132 C 
ATOM     31  C   UNL     1      97.953  61.295 102.412  1.00  0.00    +0.132 C 
ATOM     32  C   UNL     1      96.890  63.213 100.708  1.00  0.00    +0.102 C 
ATOM     33  C   UNL     1      96.579  61.037 101.753  1.00  0.00    +0.102 C 
ATOM     34  N   UNL     1      95.911  62.221 101.186  1.00  0.00    -0.313 NA
ATOM     35  H   UNL     1      95.332  62.661 101.900  1.00  0.00    +0.122 HD
ENDBRANCH  28  29
ENDBRANCH   1  23
TORSDOF 5
ENDMDL
