MODEL 1
REMARK VINA RESULT:    -4.662      0.000      0.000
REMARK INTER + INTRA:          -6.870
REMARK INTER:                  -6.569
REMARK INTRA:                  -0.301
REMARK UNBOUND:                -0.301
REMARK SMILES N[C@@H](Cc1ccc(OP(=O)(O)O)cc1)C(=O)O
REMARK SMILES IDX 4 1 5 2 6 3 7 4 13 5 14 6 3 7 2 8 1 9 15 12 16 13 17 14 8 16
REMARK SMILES IDX 9 17 10 18 11 19 12 21
REMARK H PARENT 1 10 1 11 17 15 11 20 12 22
ROOT
ATOM      1  C   UNL     1     105.706  58.998 100.529  1.00  0.00    -0.046 A 
ATOM      2  C   UNL     1     105.670  58.590  99.191  1.00  0.00    +0.007 A 
ATOM      3  C   UNL     1     104.992  57.425  98.824  1.00  0.00    +0.047 A 
ATOM      4  C   UNL     1     104.340  56.656  99.787  1.00  0.00    +0.131 A 
ATOM      5  C   UNL     1     104.374  57.048 101.122  1.00  0.00    +0.047 A 
ATOM      6  C   UNL     1     105.052  58.214 101.489  1.00  0.00    +0.007 A 
ENDROOT
BRANCH   1   7
ATOM      7  C   UNL     1     106.444  60.257 100.935  1.00  0.00    +0.066 C 
BRANCH   7   8
ATOM      8  C   UNL     1     107.979  60.190 100.858  1.00  0.00    +0.166 C 
BRANCH   8   9
ATOM      9  N   UNL     1     108.604  60.002 102.191  1.00  0.00    -0.318 NA
ATOM     10  H   UNL     1     108.010  60.419 102.905  1.00  0.00    +0.119 HD
ATOM     11  H   UNL     1     108.627  58.995 102.379  1.00  0.00    +0.119 HD
ENDBRANCH   8   9
BRANCH   8  12
ATOM     12  C   UNL     1     108.562  61.407 100.127  1.00  0.00    +0.320 C 
ATOM     13  O   UNL     1     108.081  62.528 100.075  1.00  0.00    -0.251 OA
BRANCH  12  14
ATOM     14  O   UNL     1     109.676  61.118  99.411  1.00  0.00    -0.480 OA
ATOM     15  H   UNL     1     110.396  61.178 100.072  1.00  0.00    +0.296 HD
ENDBRANCH  12  14
ENDBRANCH   8  12
ENDBRANCH   7   8
ENDBRANCH   1   7
BRANCH   4  16
ATOM     16  O   UNL     1     103.707  55.537  99.330  1.00  0.00    -0.404 OA
BRANCH  16  17
ATOM     17  P   UNL     1     102.187  55.472  98.841  1.00  0.00    +0.524 P 
ATOM     18  O   UNL     1     101.364  54.291  99.229  1.00  0.00    -0.216 OA
BRANCH  17  19
ATOM     19  O   UNL     1     102.254  55.742  97.266  1.00  0.00    -0.293 OA
ATOM     20  H   UNL     1     102.872  55.125  96.836  1.00  0.00    +0.225 HD
ENDBRANCH  17  19
BRANCH  17  21
ATOM     21  O   UNL     1     101.507  56.841  99.319  1.00  0.00    -0.293 OA
ATOM     22  H   UNL     1     101.857  57.084 100.197  1.00  0.00    +0.225 HD
ENDBRANCH  17  21
ENDBRANCH  16  17
ENDBRANCH   4  16
TORSDOF 9
ENDMDL
